53	0	*	1
2	1	*	1
60	2	*	1
18	3	*	1
40	4	*	1
42	5	*	1
45	6	*	1
74	7	*	1
0	8	*	1
35	9	*	1
59	7	0.0/1287aa/53.04%	1
51	10	*	1
73	7	0.0/1271aa/53.67%	1
65	7	0.0/1307aa/50.57%	1
79	11	*	1
55	12	*	1
68	13	*	1
67	14	*	1
3	15	*	1
75	7	0.0/1244aa/51.09%	1
21	16	*	1
7	17	*	1
66	7	0.0/1248aa/46.35%	1
10	18	*	1
13	19	*	1
38	20	*	1
20	21	*	1
12	22	*	1
70	10	0.0/1108aa/59.96%	1
80	23	*	1
26	24	*	1
71	10	0.0/1129aa/51.85%	1
39	25	*	1
64	14	0.0/914aa/58.4%	1
25	26	*	1
24	27	*	1
22	28	*	1
37	29	*	1
11	30	*	1
23	31	*	1
19	32	*	1
69	27	0.0/870aa/48.51%	1
1	33	*	1
28	34	*	1
76	35	*	1
32	35	0.0/773aa/63.3%	1
41	36	*	1
54	37	*	1
44	38	*	1
27	39	*	1
47	40	*	1
62	7	0.0/737aa/88.31%	1
81	41	*	1
16	42	*	1
77	9	0.0/691aa/60.36%	1
48	43	*	1
5	44	*	1
30	45	*	1
31	46	*	1
57	47	*	1
49	48	*	1
58	49	*	1
17	50	*	1
72	45	0.0/727aa/55.97%	1
8	51	*	1
34	52	*	1
36	14	0.0/681aa/69.85%	1
61	40	1.21e-162/727aa/46.91%	1
52	53	*	1
9	54	*	1
43	55	*	1
29	56	*	1
56	57	*	1
33	58	*	1
15	59	*	1
46	60	*	1
14	61	*	1
63	35	0.0/624aa/68.57%	1
50	62	*	1
78	57	0.0/633aa/87.99%	1
82	2	7.69e-172/639aa/47.61%	1
6	63	*	1
4	64	*	1
