91	0	*	1
79	0	0.0/1309aa/53.11%	1
104	0	0.0/1295aa/53.81%	1
4	1	*	1
106	0	0.0/1325aa/55.65%	1
112	2	*	1
77	0	0.0/1317aa/54.88%	1
30	3	*	1
31	3	0.0/1347aa/73.79%	1
67	4	*	1
103	0	0.0/1319aa/63.13%	1
93	0	0.0/1338aa/55.78%	1
69	5	*	1
101	0	0.0/1308aa/60.67%	1
90	0	0.0/1353aa/62.57%	1
96	3	0.0/1352aa/64.45%	1
70	5	0.0/1380aa/52.24%	1
2	1	0.0/786:478aa/87.5%	1
82	0	0.0/1325aa/56.79%	1
24	5	0.0/1346aa/54.89%	1
94	0	0.0/1309aa/59.65%	1
23	0	0.0/1337aa/52.18%	1
105	0	0.0/783:393aa/46.98%	1
92	0	0.0/1344aa/54.93%	1
107	5	0.0/1333aa/51.8%	1
21	0	0.0/1313aa/55.59%	1
78	0	0.0/1312aa/63.24%	1
71	6	*	1
109	5	0.0/1326aa/51.66%	1
53	0	0.0/1286aa/61.87%	1
3	7	*	1
60	8	*	1
22	0	0.0/1320aa/55.66%	1
118	9	*	1
10	4	0.0/469:769aa/48.43%	1
102	0	0.0/774:405aa/52.17%	1
76	0	0.0/775:398aa/56.54%	1
100	8	0.0/1269aa/78.27%	1
57	0	0.0/1294aa/58.93%	1
108	5	0.0/1278aa/47.44%	1
9	8	0.0/1272aa/78.66%	1
110	9	0.0/1287aa/53.04%	1
84	10	*	1
99	8	0.0/1278aa/53.9%	1
85	10	0.0/1238aa/62.99%	1
80	10	0.0/1241aa/56.03%	1
116	9	0.0/1307aa/50.57%	1
11	8	0.0/1271aa/69.95%	1
26	10	0.0/1243aa/53.55%	1
98	11	*	1
83	12	*	1
42	10	0.0/1236aa/58.22%	1
40	10	0.0/1237aa/58.38%	1
72	10	0.0/1248aa/59.79%	1
59	10	0.0/1265aa/55.97%	1
41	9	0.0/1255aa/50.33%	1
58	8	0.0/1230aa/58.01%	1
7	13	*	1
117	9	0.0/1244aa/51.09%	1
62	10	0.0/1240aa/52.65%	1
75	12	0.0/1106aa/54.34%	1
29	8	0.0/1207aa/57.65%	1
27	8	0.0/1206aa/61.16%	1
68	1	0.0/473:699aa/49.15%	1
35	14	*	1
61	10	0.0/1237aa/53.35%	1
56	10	0.0/1230aa/54.29%	1
0	8	0.0/1228aa/58.51%	1
1	8	0.0/1211aa/59.19%	1
36	10	0.0/1225aa/60.98%	1
54	10	0.0/1235aa/53.49%	1
13	8	0.0/1227aa/56.94%	1
33	8	0.0/1199aa/56.43%	1
38	10	0.0/1224aa/53.02%	1
5	8	0.0/1202aa/57.93%	1
111	8	0.0/1242aa/57.3%	1
12	8	0.0/1235aa/58.37%	1
55	10	0.0/737:366aa/51.11%	1
14	15	*	1
16	8	0.0/1253aa/58.34%	1
88	12	0.0/1133aa/52.43%	1
15	8	0.0/1228aa/58.04%	1
113	5	0.0/466:726aa/55.99%	1
28	8	0.0/1236aa/58.69%	1
89	10	0.0/1225aa/57.66%	1
114	9	0.0/1248aa/46.35%	1
46	10	0.0/1229aa/53.3%	1
52	10	0.0/1236aa/46.69%	1
74	12	0.0/1134aa/54.24%	1
95	10	0.0/1235aa/46.35%	1
17	16	*	1
47	10	0.0/1224aa/53.65%	1
48	10	0.0/1232aa/52.36%	1
81	12	0.0/1123aa/52.88%	1
49	10	0.0/1214aa/53.79%	1
63	12	0.0/1121aa/49.82%	1
73	10	0.0/1228aa/47.23%	1
6	10	0.0/1219aa/59.98%	1
8	10	0.0/1225aa/48.31%	1
34	12	0.0/1086aa/52.11%	1
50	15	0.0/1186aa/58.59%	1
51	10	0.0/1224aa/45.72%	1
20	17	*	1
43	12	0.0/1130aa/56.36%	1
64	18	*	1
97	12	0.0/1128aa/56.62%	1
115	9	0.0/1212aa/46.5%	1
37	12	0.0/1130aa/53.18%	1
86	10	0.0/1232aa/45.15%	1
25	10	0.0/1212aa/60.66%	1
44	12	0.0/1121aa/56.29%	1
45	9	0.0/1193aa/48.02%	1
87	12	0.0/1213aa/58.59%	1
32	19	*	1
18	20	*	1
19	8	0.0/1078aa/50.98%	1
65	12	0.0/1141aa/54.65%	1
39	21	*	1
66	22	*	1
