617	0	*	1
591	0	0.0/1309aa/53.11%	1
635	0	0.0/1295aa/53.81%	1
46	1	*	1
638	0	0.0/1325aa/55.65%	1
678	2	*	1
587	0	0.0/1317aa/54.88%	1
233	3	*	1
255	3	0.0/1344aa/96.56%	1
234	3	0.0/1347aa/73.79%	1
488	4	*	1
354	4	0.0/1310aa/98.71%	1
634	0	0.0/1319aa/63.13%	1
619	0	0.0/1338aa/55.78%	1
513	5	*	1
616	5	0.0/1301aa/97.38%	1
631	0	0.0/1308aa/60.67%	1
632	0	0.0/1337aa/57.21%	1
614	0	0.0/1353aa/62.57%	1
623	3	0.0/1352aa/64.45%	1
514	5	0.0/1380aa/52.24%	1
43	1	0.0/786:478aa/87.5%	1
597	0	0.0/1325aa/56.79%	1
181	5	0.0/1346aa/54.89%	1
620	0	0.0/1309aa/59.65%	1
168	0	0.0/1337aa/52.18%	1
637	0	0.0/783:393aa/46.98%	1
618	0	0.0/1344aa/54.93%	1
642	5	0.0/1333aa/51.8%	1
605	3	0.0/1346aa/64.02%	1
166	0	0.0/1313aa/55.59%	1
588	0	0.0/1312aa/63.24%	1
564	6	*	1
644	5	0.0/1326aa/51.66%	1
451	0	0.0/1286aa/61.87%	1
615	0	0.0/1278aa/61.63%	1
44	7	*	1
471	8	*	1
624	3	0.0/1345aa/63.48%	1
596	0	0.0/1293aa/62.57%	1
167	0	0.0/1320aa/55.66%	1
636	0	0.0/1321aa/56.43%	1
593	0	0.0/1279aa/62.01%	1
81	4	0.0/469:769aa/48.43%	1
305	4	0.0/469:767aa/48.19%	1
383	4	0.0/469:768aa/48.27%	1
633	0	0.0/774:405aa/52.17%	1
586	0	0.0/775:398aa/56.54%	1
628	8	0.0/1269aa/78.27%	1
461	0	0.0/1294aa/58.93%	1
462	0	0.0/1299aa/60.14%	1
164	0	0.0/1294aa/59.06%	1
225	8	0.0/1273aa/72.55%	1
643	5	0.0/1278aa/47.44%	1
669	8	0.0/1263aa/81.92%	1
79	8	0.0/1272aa/78.66%	1
666	9	*	1
602	10	*	1
677	8	0.0/1261aa/88.31%	1
126	8	0.0/1261aa/88.38%	1
186	8	0.0/1261aa/89.19%	1
418	9	0.0/1219aa/97.88%	1
627	8	0.0/1278aa/53.9%	1
70	8	0.0/1268aa/81.44%	1
651	8	0.0/1270aa/75.02%	1
80	8	0.0/1270aa/75.08%	1
88	8	0.0/1270aa/75.08%	1
155	8	0.0/1270aa/75.08%	1
158	8	0.0/1270aa/75%	1
161	8	0.0/1266aa/74.59%	1
212	8	0.0/1266aa/74.75%	1
286	8	0.0/1270aa/74.67%	1
291	8	0.0/1270aa/75.08%	1
114	8	0.0/1263aa/76.93%	1
217	8	0.0/1263aa/76.77%	1
364	8	0.0/1263aa/76.77%	1
606	10	0.0/1238aa/62.99%	1
675	8	0.0/1263aa/77.09%	1
592	10	0.0/1241aa/56.03%	1
491	6	0.0/1264aa/99.67%	1
522	6	0.0/1266aa/84.96%	1
84	8	0.0/1271aa/69.95%	1
470	10	0.0/1235aa/63.29%	1
394	10	0.0/1231aa/63.23%	1
603	10	0.0/1237aa/60.42%	1
189	10	0.0/1243aa/53.55%	1
626	11	*	1
188	10	0.0/1234aa/53.56%	1
504	8	0.0/1242aa/74.95%	1
600	11	0.0/1127aa/52.94%	1
385	10	0.0/1236aa/58.22%	1
505	8	0.0/1242aa/81.13%	1
662	8	0.0/1242aa/81.13%	1
492	8	0.0/1237aa/76.93%	1
375	10	0.0/1237aa/58.38%	1
565	10	0.0/1248aa/59.79%	1
469	10	0.0/1265aa/55.97%	1
486	10	0.0/1225aa/60.86%	1
412	10	0.0/1225aa/60.92%	1
464	10	0.0/1225aa/60.83%	1
384	9	0.0/1209aa/49.16%	1
466	8	0.0/1230aa/58.01%	1
493	8	0.0/1230aa/58.01%	1
547	8	0.0/1229aa/58.01%	1
14	8	0.0/1228aa/58.03%	1
34	8	0.0/1228aa/57.77%	1
92	8	0.0/1228aa/58.2%	1
142	8	0.0/1228aa/58.03%	1
172	8	0.0/1228aa/58.2%	1
174	8	0.0/1228aa/58.2%	1
222	8	0.0/1228aa/58.2%	1
506	8	0.0/1244aa/70.39%	1
75	12	*	1
583	12	0.0/1189aa/86.59%	1
665	10	0.0/1237aa/55.39%	1
479	10	0.0/1240aa/52.65%	1
570	10	0.0/1240aa/52.65%	1
584	11	0.0/1214aa/62.95%	1
226	8	0.0/1207aa/57.65%	1
511	8	0.0/1207aa/57.05%	1
207	8	0.0/1206aa/61.16%	1
534	8	0.0/1208aa/57.44%	1
537	8	0.0/1208aa/57.52%	1
598	8	0.0/1213aa/57.44%	1
674	8	0.0/1208aa/57.78%	1
681	8	0.0/1208aa/57.52%	1
47	8	0.0/1211aa/57.4%	1
224	8	0.0/1203aa/62.57%	1
405	9	0.0/1190aa/46.74%	1
410	10	0.0/1230aa/57.4%	1
503	8	0.0/1203aa/62.57%	1
17	9	0.0/1190aa/46.44%	1
59	9	0.0/1190aa/46.77%	1
131	8	0.0/1207aa/57.96%	1
175	8	0.0/1207aa/57.96%	1
180	9	0.0/1190aa/46.77%	1
379	9	0.0/1190aa/46.77%	1
489	1	0.0/473:699aa/49.15%	1
31	8	0.0/1208aa/58.01%	1
91	8	0.0/1208aa/58.26%	1
356	1	0.0/473:699aa/49.19%	1
430	8	0.0/1207aa/62.08%	1
472	8	0.0/1207aa/61.91%	1
23	8	0.0/1207aa/62.3%	1
53	8	0.0/1207aa/62.13%	1
99	8	0.0/1207aa/62.3%	1
100	8	0.0/1207aa/62.3%	1
102	8	0.0/1207aa/62.3%	1
107	8	0.0/1207aa/62.3%	1
122	8	0.0/1207aa/62.05%	1
244	8	0.0/1207aa/62.3%	1
272	8	0.0/1207aa/62.05%	1
310	8	0.0/1207aa/62.05%	1
313	8	0.0/1207aa/61.96%	1
343	8	0.0/1207aa/62.05%	1
399	8	0.0/1207aa/62.05%	1
432	8	0.0/1203aa/61.46%	1
448	8	0.0/1206aa/62.05%	1
528	8	0.0/1206aa/61.96%	1
29	8	0.0/1206aa/62.19%	1
30	8	0.0/1206aa/62.19%	1
187	8	0.0/1206aa/62.19%	1
205	8	0.0/1206aa/61.93%	1
219	8	0.0/1208aa/57.17%	1
259	8	0.0/1206aa/62.1%	1
264	8	0.0/1206aa/62.19%	1
284	8	0.0/1206aa/62.19%	1
297	13	*	1
298	13	0.0/1164aa/98.89%	1
301	13	0.0/1164aa/98.89%	1
302	8	0.0/1206aa/62.19%	1
428	8	0.0/1206aa/61.93%	1
433	8	0.0/1206aa/61.93%	1
476	10	0.0/1237aa/53.35%	1
501	8	0.0/1208aa/57.17%	1
527	8	0.0/1207aa/57.34%	1
571	8	0.0/1207aa/57.34%	1
648	10	0.0/1237aa/53.61%	1
4	8	0.0/1207aa/57.31%	1
41	8	0.0/1207aa/57.31%	1
57	8	0.0/1207aa/57.48%	1
74	8	0.0/1207aa/57.48%	1
135	8	0.0/1212aa/54.67%	1
136	8	0.0/1207aa/55.78%	1
138	8	0.0/1207aa/57.05%	1
141	8	0.0/1207aa/57.39%	1
201	8	0.0/1207aa/57.48%	1
220	8	0.0/1219aa/58.58%	1
467	10	0.0/1237aa/53.65%	1
499	8	0.0/1207aa/57.39%	1
515	8	0.0/1206aa/57.22%	1
550	8	0.0/1207aa/57.48%	1
460	10	0.0/1230aa/54.29%	1
36	8	0.0/1228aa/58.51%	1
37	8	0.0/1211aa/59.19%	1
38	8	0.0/1211aa/59.19%	1
62	8	0.0/1214aa/58.26%	1
192	8	0.0/1214aa/58.26%	1
238	10	0.0/1230aa/54.51%	1
308	10	0.0/1225aa/60.98%	1
316	8	0.0/1214aa/58%	1
382	10	0.0/1230aa/54.34%	1
390	10	0.0/1230aa/54.51%	1
453	10	0.0/1235aa/53.49%	1
494	8	0.0/1211aa/59.19%	1
498	8	0.0/1211aa/59.19%	1
98	8	0.0/1227aa/56.94%	1
283	8	0.0/1199aa/56.43%	1
346	10	0.0/1224aa/53.02%	1
389	10	0.0/1224aa/52.85%	1
457	8	0.0/1201aa/62.23%	1
649	8	0.0/1203aa/57.11%	1
63	8	0.0/1202aa/57.93%	1
2	8	0.0/1228aa/57.72%	1
10	8	0.0/1228aa/57.72%	1
35	8	0.0/1228aa/57.72%	1
104	8	0.0/1226aa/57.72%	1
171	8	0.0/1228aa/57.72%	1
250	8	0.0/1228aa/57.72%	1
306	8	0.0/1228aa/57.55%	1
374	8	0.0/1228aa/57.55%	1
508	8	0.0/1227aa/57.72%	1
531	8	0.0/1228aa/57.72%	1
672	8	0.0/1242aa/57.3%	1
94	8	0.0/1235aa/58.37%	1
231	8	0.0/1190aa/56.06%	1
456	10	0.0/737:366aa/51.11%	1
465	10	0.0/1223aa/51.62%	1
496	8	0.0/1190aa/56.23%	1
604	10	0.0/1223aa/51.62%	1
647	10	0.0/1223aa/51.62%	1
65	10	0.0/1227aa/53.37%	1
105	14	*	1
125	8	0.0/1253aa/58.34%	1
140	8	0.0/1213aa/60.73%	1
197	8	0.0/1253aa/58.51%	1
253	10	0.0/1231aa/45.85%	1
444	14	0.0/1169aa/99.31%	1
611	11	0.0/1167aa/54.4%	1
612	10	0.0/1233aa/45.93%	1
639	8	0.0/1228aa/57.82%	1
111	8	0.0/1206aa/61.21%	1
112	8	0.0/1212aa/60.95%	1
116	8	0.0/1228aa/58.04%	1
162	8	0.0/1230aa/57.19%	1
209	8	0.0/1228aa/58.47%	1
315	8	0.0/1212aa/60.78%	1
495	8	0.0/1234aa/58.39%	1
685	5	0.0/466:726aa/55.99%	1
69	8	0.0/1232aa/58.86%	1
213	8	0.0/1236aa/58.69%	1
554	8	0.0/1233aa/58.35%	1
613	10	0.0/1225aa/57.66%	1
60	8	0.0/1235aa/59.09%	1
9	8	0.0/1228aa/58.36%	1
411	10	0.0/1229aa/53.3%	1
447	10	0.0/1236aa/46.69%	1
577	10	0.0/1229aa/53.56%	1
582	11	0.0/1210aa/60.42%	1
621	10	0.0/1235aa/46.35%	1
670	10	0.0/1229aa/53.3%	1
218	10	0.0/1229aa/53.6%	1
257	8	0.0/1200aa/62.54%	1
391	10	0.0/1229aa/53.35%	1
392	10	0.0/1229aa/53.6%	1
406	8	0.0/1200aa/62.54%	1
507	8	0.0/1228aa/59.02%	1
663	8	0.0/1228aa/59.02%	1
130	15	*	1
245	10	0.0/1245aa/45.91%	1
258	8	0.0/1201aa/57.52%	1
416	10	0.0/1224aa/53.65%	1
676	8	0.0/1200aa/57.43%	1
417	10	0.0/1232aa/52.36%	1
595	11	0.0/1210aa/61.15%	1
61	8	0.0/1236aa/60.51%	1
73	10	0.0/1232aa/52.15%	1
154	8	0.0/1236aa/60.43%	1
229	10	0.0/1232aa/52.06%	1
368	10	0.0/1232aa/52.15%	1
502	8	0.0/1206aa/62.5%	1
419	10	0.0/1214aa/53.79%	1
424	9	0.0/1146aa/92.4%	1
425	9	0.0/1144aa/92.22%	1
483	11	0.0/1145aa/67.18%	1
578	10	0.0/1228aa/47.23%	1
64	10	0.0/1219aa/59.98%	1
77	10	0.0/1225aa/48.31%	1
236	10	0.0/1214aa/53.32%	1
265	10	0.0/1214aa/53.84%	1
296	11	0.0/1210aa/56%	1
350	11	0.0/1145aa/67.32%	1
395	9	0.0/1144aa/93.43%	1
442	14	0.0/1186aa/58.59%	1
443	10	0.0/1224aa/45.72%	1
480	11	0.0/1145aa/67.32%	1
576	14	0.0/1186aa/58.08%	1
594	10	0.0/1224aa/45.54%	1
5	14	0.0/1186aa/58.3%	1
21	8	0.0/1209aa/57%	1
54	8	0.0/1210aa/56.74%	1
210	10	0.0/1226aa/48.26%	1
237	8	0.0/1208aa/57.09%	1
477	8	0.0/1210aa/57.09%	1
535	8	0.0/1208aa/57.17%	1
536	8	0.0/1213aa/57.09%	1
538	8	0.0/1208aa/57.17%	1
1	8	0.0/1208aa/57.14%	1
6	8	0.0/1208aa/57.22%	1
8	8	0.0/1208aa/57.14%	1
22	8	0.0/1208aa/57.22%	1
48	8	0.0/1208aa/56.79%	1
51	8	0.0/1211aa/57.05%	1
52	8	0.0/1208aa/57.22%	1
56	8	0.0/1208aa/57.22%	1
85	8	0.0/1189aa/57.05%	1
121	8	0.0/1208aa/57.22%	1
147	8	0.0/1208aa/57.14%	1
153	16	*	1
157	8	0.0/1208aa/56.79%	1
190	8	0.0/1208aa/57.22%	1
194	8	0.0/1208aa/57.22%	1
249	8	0.0/1208aa/57.14%	1
262	8	0.0/1206aa/57.31%	1
295	8	0.0/1208aa/57.22%	1
303	8	0.0/1206aa/56.96%	1
387	11	0.0/1158aa/57.83%	1
484	17	*	1
500	8	0.0/1207aa/57.22%	1
516	8	0.0/1207aa/57.22%	1
625	11	0.0/1129aa/59.04%	1
228	10	0.0/1222aa/45.92%	1
254	10	0.0/1222aa/46.36%	1
261	11	0.0/1153aa/63.69%	1
349	17	0.0/1154aa/99.82%	1
481	17	0.0/1154aa/99.82%	1
163	10	0.0/1226aa/47.3%	1
441	14	0.0/1181aa/58.33%	1
20	14	0.0/1181aa/58.38%	1
421	10	0.0/1222aa/45.09%	1
440	10	0.0/1222aa/45.17%	1
549	10	0.0/1222aa/45.61%	1
671	10	0.0/1222aa/45.61%	1
123	10	0.0/1222aa/45.65%	1
191	10	0.0/1222aa/45.65%	1
288	10	0.0/1222aa/45.65%	1
321	10	0.0/1222aa/45.65%	1
322	10	0.0/1222aa/45.56%	1
327	10	0.0/1222aa/45.56%	1
445	10	0.0/1222aa/47.21%	1
509	8	0.0/1189aa/57.45%	1
585	11	0.0/1086aa/58.23%	1
319	11	0.0/1171aa/57.11%	1
608	10	0.0/1232aa/45.15%	1
95	10	0.0/1197aa/45.27%	1
182	10	0.0/1212aa/60.66%	1
359	10	0.0/1232aa/45.19%	1
401	11	0.0/1153aa/76.66%	1
414	11	0.0/1164aa/58.82%	1
437	11	0.0/1164aa/59.17%	1
653	11	0.0/1164aa/53.9%	1
39	11	0.0/1160aa/57.73%	1
66	11	0.0/1164aa/58.87%	1
67	11	0.0/1164aa/59.22%	1
307	11	0.0/1164aa/59.22%	1
332	11	0.0/1164aa/59.31%	1
369	11	0.0/1164aa/59.22%	1
370	11	0.0/1169aa/58.69%	1
403	9	0.0/1173aa/48.46%	1
435	9	0.0/1134aa/93.93%	1
15	9	0.0/1172aa/48.23%	1
18	9	0.0/1173aa/48.5%	1
178	9	0.0/1173aa/48.5%	1
28	9	0.0/1174aa/46.34%	1
58	9	0.0/1172aa/48.28%	1
609	11	0.0/1110aa/58.23%	1
256	18	*	1
581	11	0.0/1085aa/59.09%	1
599	11	0.0/1086aa/59.8%	1
299	13	0.0/1132aa/87.68%	1
300	13	0.0/1132aa/87.68%	1
146	19	*	1
386	11	0.0/1126aa/56.64%	1
351	10	0.0/737:274aa/49.86%	1
150	8	0.0/1078aa/50.98%	1
151	8	0.0/676:273aa/48.65%	1
152	8	0.0/1084aa/50.08%	1
485	11	0.0/1125aa/55.72%	1
348	11	0.0/1125aa/55.86%	1
129	19	0.0/1122aa/97.56%	1
358	20	*	1
487	21	*	1
355	21	0.0/1060aa/99.9%	1
252	8	0.0/1054aa/56.32%	1
312	8	0.0/952aa/57.6%	1
388	8	0.0/951aa/52.88%	1
78	8	0.0/931aa/52.56%	1
294	1	0.0/681aa/71.1%	1
101	8	0.0/923aa/46.76%	1
426	10	0.0/924aa/46.79%	1
357	22	*	1
352	23	*	1
263	8	0.0/865aa/56.58%	1
344	24	*	1
482	25	*	1
241	23	0.0/868aa/45.47%	1
137	26	*	1
240	23	0.0/862aa/49.93%	1
19	8	0.0/833aa/48.6%	1
347	27	*	1
242	28	*	1
373	27	0.0/809aa/87.62%	1
45	29	*	1
524	27	0.0/821aa/64.5%	1
211	14	1.94e-180/832aa/46%	1
378	30	*	1
397	30	0.0/804aa/57.19%	1
235	8	0.0/798aa/47.79%	1
449	31	*	1
490	32	*	1
353	32	0.0/781aa/100%	1
376	32	0.0/781aa/100%	1
622	33	*	1
546	34	*	1
282	34	0.0/777aa/98.84%	1
361	33	0.0/765aa/98.82%	1
365	34	0.0/779aa/85.22%	1
393	34	0.0/779aa/85.22%	1
89	16	0.0/772aa/48.28%	1
366	34	0.0/778aa/87%	1
106	33	0.0/800aa/66.13%	1
367	35	*	1
124	31	0.0/749aa/97.73%	1
610	8	0.0/693aa/57.4%	1
572	36	*	1
223	34	0.0/778aa/88.4%	1
274	34	0.0/781aa/87.6%	1
278	34	0.0/781aa/88.15%	1
115	16	1.30e-179/754aa/45.79%	1
83	31	0.0/726aa/80.11%	1
133	8	0.0/718aa/50.76%	1
145	34	0.0/779aa/90.17%	1
273	34	0.0/779aa/90.17%	1
279	34	0.0/779aa/90.17%	1
280	34	0.0/779aa/89.76%	1
566	8	0.0/692aa/59.75%	1
568	8	0.0/692aa/59.75%	1
185	37	*	1
320	37	0.0/723aa/99.16%	1
156	37	0.0/723aa/88.21%	1
206	8	0.0/691aa/60.27%	1
431	8	0.0/691aa/59.86%	1
434	8	0.0/691aa/60.13%	1
446	8	0.0/691aa/60.13%	1
452	8	0.0/685aa/61.66%	1
510	8	0.0/691aa/60.27%	1
518	8	0.0/685aa/60.83%	1
519	8	0.0/685aa/60.83%	1
520	8	0.0/685aa/60.83%	1
551	8	0.0/685aa/60%	1
555	8	0.0/691aa/59.72%	1
556	8	0.0/692aa/59.72%	1
557	8	0.0/692aa/60%	1
558	8	0.0/691aa/59.86%	1
559	8	0.0/691aa/59.86%	1
560	8	0.0/691aa/59.3%	1
561	8	0.0/691aa/59.86%	1
562	8	0.0/691aa/60.13%	1
563	8	0.0/691aa/60.13%	1
579	8	0.0/685aa/59.72%	1
629	8	0.0/691aa/60.27%	1
650	8	0.0/691aa/60.27%	1
657	8	0.0/685aa/59.72%	1
664	8	0.0/685aa/60.13%	1
683	8	0.0/691aa/60.27%	1
13	8	0.0/691aa/60.36%	1
42	8	0.0/691aa/60.36%	1
68	8	0.0/685aa/61.33%	1
76	8	0.0/691aa/60.22%	1
93	8	0.0/691aa/60.36%	1
97	8	0.0/691aa/60.22%	1
113	8	0.0/691aa/60.36%	1
120	8	0.0/685aa/58.69%	1
134	8	0.0/685aa/60.08%	1
149	8	0.0/685aa/60.77%	1
159	8	0.0/691aa/60.22%	1
160	8	0.0/685aa/58.55%	1
176	8	0.0/685aa/59.8%	1
200	8	0.0/691aa/60.22%	1
202	8	0.0/691aa/60.36%	1
247	8	0.0/691aa/60.36%	1
277	8	0.0/691aa/60.22%	1
304	8	0.0/691aa/61.33%	1
318	8	0.0/685aa/61.33%	1
326	8	0.0/691aa/60.36%	1
497	8	0.0/685aa/59.8%	1
526	8	0.0/685aa/61.33%	1
530	8	0.0/691aa/59.94%	1
552	8	0.0/685aa/61.05%	1
652	8	0.0/691aa/60.36%	1
567	8	0.0/689aa/60.16%	1
574	38	*	1
183	37	0.0/723aa/86.03%	1
214	8	0.0/674aa/60%	1
680	38	0.0/731aa/47.53%	1
96	39	*	1
371	8	0.0/672aa/59.85%	1
423	40	*	1
372	8	0.0/668aa/60.11%	1
438	8	0.0/710aa/52.14%	1
475	36	0.0/724aa/48.42%	1
660	36	0.0/725aa/48.85%	1
408	40	0.0/699aa/72.27%	1
144	39	0.0/652aa/60.71%	1
427	41	*	1
429	41	0.0/688aa/99.27%	1
645	42	*	1
659	41	0.0/688aa/99.41%	1
170	41	0.0/689aa/75.87%	1
246	41	0.0/695aa/67.44%	1
314	41	0.0/688aa/98.69%	1
362	41	0.0/694aa/67.29%	1
575	43	*	1
654	44	*	1
331	41	0.0/690aa/70.01%	1
230	45	*	1
293	42	0.0/692aa/73.61%	1
407	41	0.0/689aa/59.27%	1
275	41	0.0/690aa/63.01%	1
227	41	0.0/694aa/57.24%	1
117	46	*	1
455	47	*	1
473	48	*	1
474	48	0.0/679aa/99.26%	1
276	48	0.0/680aa/63.91%	1
439	36	0.0/690aa/81.44%	1
607	49	*	1
667	40	0.0/710aa/58.64%	1
404	36	1.52e-157/722aa/46.3%	1
55	36	1.75e-157/722aa/46.37%	1
119	50	*	1
143	39	0.0/649aa/65.77%	1
179	36	1.47e-157/722aa/46.37%	1
239	42	0.0/708aa/49.33%	1
380	36	1.47e-157/722aa/46.37%	1
525	51	*	1
553	8	0.0/687aa/63.4%	1
118	42	0.0/702aa/47.77%	1
311	36	0.0/650aa/82.31%	1
409	38	1.82e-167/726aa/45.22%	1
422	52	*	1
630	53	*	1
165	51	2.16e-151/692aa/45.64%	1
198	51	5.79e-156/706aa/46.84%	1
360	51	0.0/687aa/62.7%	1
478	41	0.0/690aa/62.25%	1
325	41	0.0/690aa/61.44%	1
450	54	*	1
363	54	0.0/663aa/99.54%	1
573	54	0.0/661aa/99.24%	1
661	54	0.0/661aa/99.69%	1
173	55	*	1
569	56	*	1
3	56	0.0/659aa/96.05%	1
324	51	1.09e-180/692aa/49.84%	1
413	51	2.77e-153/692aa/47.11%	1
24	56	0.0/651aa/93.55%	1
26	56	0.0/658aa/69.01%	1
82	56	0.0/651aa/94.78%	1
132	56	0.0/658aa/69.01%	1
232	56	0.0/658aa/69.01%	1
243	56	0.0/658aa/68.71%	1
71	56	0.0/651aa/96.15%	1
169	57	*	1
12	56	0.0/654aa/61.94%	1
108	46	0.0/610aa/47.06%	1
317	8	0.0/689aa/74.92%	1
109	14	0.0/645aa/100%	1
0	56	0.0/650aa/68.94%	1
27	56	0.0/650aa/68.94%	1
49	56	0.0/650aa/68.94%	1
50	56	0.0/650aa/68.94%	1
72	56	0.0/650aa/68.94%	1
248	56	0.0/650aa/67.85%	1
251	56	0.0/650aa/68.63%	1
309	56	0.0/650aa/68.94%	1
402	31	0.0/651aa/61.33%	1
40	31	0.0/651aa/61.43%	1
177	31	0.0/651aa/61.43%	1
381	31	0.0/648aa/60.96%	1
512	53	0.0/633aa/92.48%	1
589	53	0.0/654aa/73.98%	1
215	53	0.0/635aa/88.18%	1
454	53	0.0/634aa/92.91%	1
590	53	0.0/634aa/89.44%	1
330	53	0.0/634aa/86.9%	1
415	53	0.0/633aa/93.05%	1
436	53	0.0/633aa/85.8%	1
458	53	0.0/633aa/93.37%	1
517	53	0.0/633aa/93.37%	1
521	53	0.0/633aa/92.42%	1
532	53	0.0/633aa/92.9%	1
533	53	0.0/633aa/88.17%	1
539	53	0.0/633aa/93.05%	1
540	53	0.0/633aa/93.05%	1
541	53	0.0/633aa/92.9%	1
542	53	0.0/633aa/93.21%	1
543	53	0.0/633aa/93.05%	1
545	53	0.0/633aa/93.05%	1
548	53	0.0/633aa/93.37%	1
641	53	0.0/633aa/85.8%	1
655	53	0.0/633aa/93.53%	1
656	53	0.0/633aa/90.22%	1
658	53	0.0/633aa/92.9%	1
668	53	0.0/633aa/92.27%	1
684	53	0.0/633aa/93.37%	1
16	53	0.0/633aa/93.52%	1
25	53	0.0/633aa/88.15%	1
32	53	0.0/633aa/88.15%	1
33	53	0.0/633aa/93.52%	1
110	53	0.0/633aa/87.83%	1
127	53	0.0/633aa/87.51%	1
128	53	0.0/633aa/87.67%	1
139	53	0.0/633aa/90.99%	1
148	53	0.0/633aa/93.52%	1
193	53	0.0/633aa/93.2%	1
195	53	0.0/633aa/87.99%	1
196	53	0.0/633aa/88.15%	1
199	53	0.0/633aa/93.2%	1
203	53	0.0/633aa/88.15%	1
204	53	0.0/633aa/93.36%	1
260	53	0.0/633aa/93.04%	1
267	53	0.0/633aa/92.41%	1
269	53	0.0/633aa/90.83%	1
270	53	0.0/633aa/93.2%	1
281	53	0.0/633aa/87.83%	1
285	53	0.0/633aa/90.2%	1
287	53	0.0/633aa/89.25%	1
289	53	0.0/633aa/93.04%	1
323	53	0.0/633aa/87.99%	1
328	53	0.0/633aa/92.41%	1
329	53	0.0/633aa/91.78%	1
333	53	0.0/633aa/89.88%	1
335	53	0.0/633aa/89.88%	1
336	53	0.0/633aa/90.52%	1
341	53	0.0/633aa/92.41%	1
396	53	0.0/633aa/93.52%	1
400	53	0.0/633aa/88.3%	1
420	53	0.0/632aa/99.05%	1
463	53	0.0/632aa/99.52%	1
544	53	0.0/632aa/92.89%	1
601	58	*	1
640	53	0.0/633aa/88.15%	1
673	53	0.0/632aa/99.21%	1
682	53	0.0/632aa/99.21%	1
184	58	0.0/632aa/92.24%	1
208	53	0.0/632aa/93.03%	1
342	53	0.0/632aa/97.15%	1
679	0	2.06e-146/686aa/46.11%	1
580	49	0.0/603aa/82.22%	1
459	53	0.0/633aa/83.57%	1
292	53	0.0/633aa/83.86%	1
216	53	0.0/624aa/79.84%	1
646	53	0.0/641aa/74.88%	1
221	53	0.0/633aa/81.54%	1
266	53	0.0/633aa/81.38%	1
268	53	0.0/633aa/81.05%	1
271	53	0.0/633aa/81.54%	1
290	53	0.0/633aa/81.21%	1
334	53	0.0/633aa/81.21%	1
337	53	0.0/633aa/81.38%	1
338	53	0.0/633aa/81.21%	1
339	53	0.0/633aa/81.05%	1
340	53	0.0/633aa/81.05%	1
11	53	0.0/633aa/79.26%	1
86	16	0.0/635aa/68.7%	1
7	16	0.0/638aa/56.79%	1
103	59	*	1
90	60	*	1
523	16	0.0/629aa/55.9%	1
529	16	0.0/629aa/55.9%	1
345	44	0.0/610aa/90.47%	1
468	16	0.0/629aa/55.99%	1
87	16	0.0/627aa/56.5%	1
377	49	0.0/601aa/85.85%	1
398	49	0.0/601aa/86.18%	1
